# vtk DataFile Version 2.0
Unstructured grid with 2 triangles
ASCII
DATASET UNSTRUCTURED_GRID
POINTS 4 double
0 0 0
1 0 0
1 1 0
0 1 0

CELLS 2 8
3 0 1 2
3 3 0 2

CELL_TYPES 2
5
5

POINT_DATA 4
SCALARS my_scalars double 1
LOOKUP_TABLE default
1.3
2.4
3.5
4.1


